 Gaussian 16, Revision B.01,
 Gaussian 16:  EM64L-G16RevB.01 20-Dec-2017

 ---------------------
 #p opt M062X/6-31g(d)
 ---------------------

 -------
 9568614
 -------
 Symbolic Z-matrix:
 Charge =  0 Multiplicity = 1

 SCF Done:  E(RM062X) =  -1446.82396590     A.U. after   16 cycles
 SCF Done:  E(RM062X) =  -1446.83603445     A.U. after   13 cycles
 SCF Done:  E(RM062X) =  -1446.84014574     A.U. after   14 cycles
 SCF Done:  E(RM062X) =  -1446.84162636     A.U. after   14 cycles
 SCF Done:  E(RM062X) =  -1446.84185586     A.U. after   13 cycles
 SCF Done:  E(RM062X) =  -1446.84191077     A.U. after   11 cycles
 SCF Done:  E(RM062X) =  -1446.84192991     A.U. after   10 cycles
 SCF Done:  E(RM062X) =  -1446.84194259     A.U. after   11 cycles
 SCF Done:  E(RM062X) =  -1446.84195751     A.U. after   12 cycles
 SCF Done:  E(RM062X) =  -1446.84196865     A.U. after   11 cycles
 SCF Done:  E(RM062X) =  -1446.84199907     A.U. after   14 cycles
 SCF Done:  E(RM062X) =  -1446.84205469     A.U. after   13 cycles
 SCF Done:  E(RM062X) =  -1446.84207598     A.U. after   11 cycles
 SCF Done:  E(RM062X) =  -1446.84208283     A.U. after   11 cycles
 SCF Done:  E(RM062X) =  -1446.84208737     A.U. after   10 cycles
 SCF Done:  E(RM062X) =  -1446.84209674     A.U. after   12 cycles
 SCF Done:  E(RM062X) =  -1446.84209678     A.U. after    9 cycles
 SCF Done:  E(RM062X) =  -1446.84209724     A.U. after   11 cycles
 SCF Done:  E(RM062X) =  -1446.84209757     A.U. after    8 cycles
 SCF Done:  E(RM062X) =  -1446.84209768     A.U. after    8 cycles
 Optimization completed.
    -- Stationary point found.

                         Standard orientation:
 ---------------------------------------------------------------------
 Center     Atomic      Atomic             Coordinates (Angstroms)
 Number     Number       Type             X           Y           Z
 ---------------------------------------------------------------------
      1         16           0       -0.243181   -1.173855   -0.766616
      2          8           0       -5.197532    1.569657   -0.710934
      3          8           0        0.107547   -2.638161   -0.670776
      4          8           0        7.006758    0.521894    0.357988
      5          7           0        2.431325   -1.157082   -0.400679
      6          7           0        1.541502    0.899425   -0.245920
      7          7           0       -3.229391   -1.665876    0.971197
      8          6           0       -1.064080   -0.632385    0.798506
      9          6           0       -2.551226   -0.577782    0.602713
     10          6           0       -3.145895    0.554435    0.021832
     11          6           0        1.321446   -0.368517   -0.423549
     12          6           0        3.494092   -0.312211   -0.168184
     13          6           0       -4.531528    0.511806   -0.143879
     14          6           0        2.918508    0.970421   -0.077825
     15          6           0       -5.267357   -0.616786    0.225813
     16          6           0       -2.345794    1.755675   -0.409594
     17          6           0        4.866812   -0.550103   -0.031831
     18          6           0       -4.546777   -1.673766    0.776528
     19          6           0        3.744672    2.078940    0.158636
     20          6           0        5.657168    0.567152    0.201438
     21          6           0        5.098693    1.865900    0.294491
     22          6           0       -6.753717   -0.675050    0.015078
     23          6           0       -5.487773    2.608154    0.214012
     24          6           0        7.626776   -0.740577    0.275653
     25          1           0       -0.625107    0.335405    1.054681
     26          1           0       -0.795854   -1.392107    1.536905
     27          1           0        2.388379   -2.166433   -0.482747
     28          1           0       -1.421109    1.470082   -0.920591
     29          1           0       -2.933790    2.373501   -1.091028
     30          1           0       -2.053119    2.371074    0.449910
     31          1           0        5.275129   -1.549905   -0.106594
     32          1           0       -5.069659   -2.579507    1.079981
     33          1           0        3.318588    3.073713    0.230346
     34          1           0        5.783750    2.686287    0.477571
     35          1           0       -7.143697   -1.656023    0.296817
     36          1           0       -7.274128    0.081286    0.611944
     37          1           0       -7.004411   -0.484952   -1.032160
     38          1           0       -6.038690    3.371463   -0.336334
     39          1           0       -4.567935    3.043208    0.622706
     40          1           0       -6.102768    2.234865    1.041677
     41          1           0        7.254879   -1.418063    1.054388
     42          1           0        8.692224   -0.567013    0.424775
     43          1           0        7.465870   -1.199439   -0.707838
 ---------------------------------------------------------------------

 The electronic state is 1-A.
 Alpha  occ. eigenvalues --  -90.04156 -19.67267 -19.66825 -19.60680 -14.82260
 Alpha  occ. eigenvalues --  -14.75851 -14.75633 -10.63277 -10.61730 -10.61560
 Alpha  occ. eigenvalues --  -10.60656 -10.60282 -10.59591 -10.59525 -10.58126
 Alpha  occ. eigenvalues --  -10.57742 -10.57275 -10.56932 -10.56527 -10.55817
 Alpha  occ. eigenvalues --  -10.55595 -10.55046 -10.55009 -10.54702  -8.37396
 Alpha  occ. eigenvalues --   -6.29385  -6.29321  -6.28958  -1.19406  -1.19037
 Alpha  occ. eigenvalues --   -1.15212  -1.12301  -1.05624  -0.99478  -0.95265
 Alpha  occ. eigenvalues --   -0.91716  -0.91649  -0.87466  -0.85016  -0.84389
 Alpha  occ. eigenvalues --   -0.81767  -0.80909  -0.78054  -0.77773  -0.74020
 Alpha  occ. eigenvalues --   -0.71772  -0.68977  -0.68618  -0.67276  -0.66170
 Alpha  occ. eigenvalues --   -0.63413  -0.60519  -0.59752  -0.59033  -0.57819
 Alpha  occ. eigenvalues --   -0.55315  -0.55281  -0.54482  -0.53791  -0.53596
 Alpha  occ. eigenvalues --   -0.52481  -0.51761  -0.51173  -0.50311  -0.50000
 Alpha  occ. eigenvalues --   -0.49351  -0.48798  -0.48695  -0.48031  -0.47345
 Alpha  occ. eigenvalues --   -0.46447  -0.45980  -0.45442  -0.44507  -0.44290
 Alpha  occ. eigenvalues --   -0.43461  -0.43216  -0.42578  -0.42163  -0.40616
 Alpha  occ. eigenvalues --   -0.38158  -0.36758  -0.36261  -0.35662  -0.34316
 Alpha  occ. eigenvalues --   -0.32208  -0.31789  -0.30813  -0.29215  -0.28617
 Alpha  occ. eigenvalues --   -0.25677
 Alpha virt. eigenvalues --    0.00337   0.01806   0.02242   0.05162   0.06296
 Alpha virt. eigenvalues --    0.07388   0.10426   0.11789   0.13565   0.14221
 Alpha virt. eigenvalues --    0.14796   0.15374   0.15553   0.16713   0.17459

 Mulliken charges:
               1
     1  S    0.862532
     2  O   -0.535911
     3  O   -0.665838
     4  O   -0.531810
     5  N   -0.733216
     6  N   -0.522516
     7  N   -0.459796
     8  C   -0.590007
     9  C    0.189824
    10  C    0.109727
    11  C    0.197519
    12  C    0.321368
    13  C    0.249577
    14  C    0.173058
    15  C    0.088538
    16  C   -0.568761
    17  C   -0.228825
    18  C   -0.031633
    19  C   -0.175382
    20  C    0.345142
    21  C   -0.212142
    22  C   -0.537164
    23  C   -0.236509
    24  C   -0.239868
    25  H    0.236133
    26  H    0.250941
    27  H    0.395040
    28  H    0.199339
    29  H    0.198538
    30  H    0.184680
    31  H    0.171413
    32  H    0.167141
    33  H    0.180338
    34  H    0.175496
    35  H    0.174740
    36  H    0.174629
    37  H    0.196524
    38  H    0.188116
    39  H    0.160863
    40  H    0.161192
    41  H    0.162469
    42  H    0.191681
    43  H    0.162819
 Sum of Mulliken charges =  -0.00000

 Dipole moment (field-independent basis, Debye):
    X=             -0.3397    Y=              1.8046    Z=              1.2726  Tot=              2.2342
 Quadrupole moment (field-independent basis, Debye-Ang):
   XX=           -108.4129   YY=           -146.2276   ZZ=           -150.7979
   XY=            -20.6480   XZ=             -4.6275   YZ=              1.6969

 Normal termination of Gaussian 16 at Mon Jun  9 11:36:14 2025.
