 Gaussian 16, Revision B.01,
 Gaussian 16:  EM64L-G16RevB.01 20-Dec-2017

 ---------------------
 #p opt M062X/6-31g(d)
 ---------------------

 ----------
 C17H18N3O4
 ----------
 Symbolic Z-matrix:
 Charge =  0 Multiplicity = 2

 SCF Done:  E(UM062X) =  -1123.25521720     A.U. after   21 cycles
 SCF Done:  E(UM062X) =  -1123.28155608     A.U. after   19 cycles
 SCF Done:  E(UM062X) =  -1123.28617915     A.U. after   19 cycles
 SCF Done:  E(UM062X) =  -1123.29002682     A.U. after   16 cycles
 SCF Done:  E(UM062X) =  -1123.29040867     A.U. after   16 cycles
 SCF Done:  E(UM062X) =  -1123.29200540     A.U. after   16 cycles
 SCF Done:  E(UM062X) =  -1123.29566135     A.U. after   20 cycles
 SCF Done:  E(UM062X) =  -1123.29846853     A.U. after   19 cycles
 SCF Done:  E(UM062X) =  -1123.30098504     A.U. after   20 cycles
 SCF Done:  E(UM062X) =  -1123.30295841     A.U. after   20 cycles
 SCF Done:  E(UM062X) =  -1123.30373344     A.U. after   15 cycles
 SCF Done:  E(UM062X) =  -1123.30384793     A.U. after   15 cycles
 SCF Done:  E(UM062X) =  -1123.30387860     A.U. after   14 cycles
 SCF Done:  E(UM062X) =  -1123.30389497     A.U. after   14 cycles
 SCF Done:  E(UM062X) =  -1123.30391090     A.U. after   14 cycles
 SCF Done:  E(UM062X) =  -1123.30392092     A.U. after   14 cycles
 SCF Done:  E(UM062X) =  -1123.30392580     A.U. after   13 cycles
 SCF Done:  E(UM062X) =  -1123.30392674     A.U. after   12 cycles
 SCF Done:  E(UM062X) =  -1123.30392688     A.U. after    8 cycles
 SCF Done:  E(UM062X) =  -1123.30392696     A.U. after    8 cycles
 Optimization completed.
    -- Stationary point found.

                         Standard orientation:
 ---------------------------------------------------------------------
 Center     Atomic      Atomic             Coordinates (Angstroms)
 Number     Number       Type             X           Y           Z
 ---------------------------------------------------------------------
      1          6           0       -7.012066   -0.027571    0.955428
      2          8           0       -5.725280    0.331076    1.398729
      3          6           0       -4.659312   -0.054900    0.639152
      4          6           0       -4.785928   -0.785392   -0.558048
      5          6           0       -3.663106   -1.160526   -1.290847
      6          6           0       -2.423162   -0.774738   -0.804725
      7          7           0       -1.120914   -0.978115   -1.243719
      8          6           0       -0.318891   -0.332355   -0.337688
      9          7           0       -0.945579    0.211622    0.659387
     10          6           0       -2.285349   -0.036062    0.390792
     11          6           0       -3.410687    0.323193    1.126075
     12          7           0        1.071792   -0.314272   -0.534463
     13          6           0        1.790297    0.884568   -0.328268
     14          6           0        1.155127    2.140605   -0.704437
     15          8           0        0.086140    1.970617   -1.529254
     16          8           0        1.523905    3.251360   -0.374760
     17          6           0        3.140680    0.811867    0.066942
     18          6           0        3.951928    2.052683    0.331670
     19          6           0        3.744282   -0.433075    0.148393
     20          8           0        5.059754   -0.565469    0.522115
     21          6           0        5.237059   -0.610673    1.931420
     22          6           0        3.046090   -1.634628   -0.217705
     23          6           0        3.775352   -2.946825   -0.237595
     24          6           0        1.734840   -1.536971   -0.533080
     25          1           0       -7.708190    0.369404    1.694438
     26          1           0       -7.236921    0.410496   -0.025249
     27          1           0       -7.128669   -1.117134    0.896898
     28          1           0       -5.764386   -1.069489   -0.924846
     29          1           0       -3.769240   -1.729724   -2.208497
     30          1           0       -0.832483   -1.212461   -2.182414
     31          1           0       -3.333240    0.883725    2.050258
     32          1           0       -0.283569    2.860875   -1.653108
     33          1           0        3.568445    2.589593    1.202854
     34          1           0        4.996210    1.781427    0.488740
     35          1           0        3.879593    2.746199   -0.508187
     36          1           0        6.304192   -0.751338    2.109844
     37          1           0        4.904570    0.323934    2.398583
     38          1           0        4.676365   -1.444746    2.371361
     39          1           0        4.181048   -3.187142    0.750373
     40          1           0        3.111329   -3.759037   -0.542996
     41          1           0        4.622867   -2.906302   -0.927960
     42          1           0        1.115910   -2.398789   -0.758033
 ---------------------------------------------------------------------

 The electronic state is 2-A.
 Alpha  occ. eigenvalues --  -19.66816 -19.66206 -19.65921 -19.61024 -14.82993
 Alpha  occ. eigenvalues --  -14.81698 -14.74377 -10.66858 -10.65645 -10.60452
 Alpha  occ. eigenvalues --  -10.60300 -10.60163 -10.59691 -10.59622 -10.59287
 Alpha  occ. eigenvalues --  -10.58425 -10.57284 -10.57246 -10.56811 -10.55994
 Alpha  occ. eigenvalues --  -10.55191 -10.55011 -10.53964 -10.53152  -1.21423
 Alpha  occ. eigenvalues --   -1.18290  -1.18036  -1.15454  -1.11490  -1.08916
 Alpha  occ. eigenvalues --   -0.99085  -0.95043  -0.92890  -0.90910  -0.85210
 Alpha  occ. eigenvalues --   -0.83566  -0.82487  -0.80864  -0.79214  -0.77826
 Alpha  occ. eigenvalues --   -0.74883  -0.71915  -0.70782  -0.68787  -0.67846
 Alpha  occ. eigenvalues --   -0.66185  -0.63444  -0.61777  -0.60261  -0.59590
 Alpha  occ. eigenvalues --   -0.58996  -0.55842  -0.54918  -0.54545  -0.54357
 Alpha  occ. eigenvalues --   -0.54219  -0.53160  -0.52736  -0.52143  -0.51346
 Alpha  occ. eigenvalues --   -0.50758  -0.50337  -0.49162  -0.48635  -0.47406
 Alpha  occ. eigenvalues --   -0.47059  -0.46599  -0.46325  -0.45559  -0.45409
 Alpha  occ. eigenvalues --   -0.44501  -0.43750  -0.42914  -0.42489  -0.41152
 Alpha  occ. eigenvalues --   -0.39358  -0.38276  -0.37143  -0.36526  -0.34997
 Alpha  occ. eigenvalues --   -0.34800  -0.34039  -0.33726  -0.32362  -0.27559
 Alpha  occ. eigenvalues --   -0.25600  -0.18052
 Alpha virt. eigenvalues --    0.01026   0.02014   0.06688   0.08760   0.10095
 Alpha virt. eigenvalues --    0.12020   0.12355   0.13790   0.14284   0.15060
 Alpha virt. eigenvalues --    0.15822   0.16376   0.17209   0.18283   0.18953

  Beta  occ. eigenvalues --  -19.66797 -19.66207 -19.65889 -19.60796 -14.82646
  Beta  occ. eigenvalues --  -14.81685 -14.74337 -10.66868 -10.65651 -10.60454
  Beta  occ. eigenvalues --  -10.60074 -10.60041 -10.59660 -10.59622 -10.58978
  Beta  occ. eigenvalues --  -10.58421 -10.57379 -10.57251 -10.56835 -10.55995
  Beta  occ. eigenvalues --  -10.55193 -10.55004 -10.53958 -10.53146  -1.21197
  Beta  occ. eigenvalues --   -1.18293  -1.17806  -1.15142  -1.11036  -1.08119
  Beta  occ. eigenvalues --   -0.98983  -0.94928  -0.92518  -0.90454  -0.85186
  Beta  occ. eigenvalues --   -0.83407  -0.82013  -0.80651  -0.79100  -0.77712
  Beta  occ. eigenvalues --   -0.74393  -0.71700  -0.70702  -0.68552  -0.67628
  Beta  occ. eigenvalues --   -0.65928  -0.63273  -0.61357  -0.59994  -0.59442
  Beta  occ. eigenvalues --   -0.58680  -0.55515  -0.54501  -0.54444  -0.54336
  Beta  occ. eigenvalues --   -0.53793  -0.52950  -0.52468  -0.51551  -0.50851
  Beta  occ. eigenvalues --   -0.50629  -0.50118  -0.48864  -0.48555  -0.47305
  Beta  occ. eigenvalues --   -0.46957  -0.46310  -0.46081  -0.45391  -0.44918
  Beta  occ. eigenvalues --   -0.44303  -0.43623  -0.42734  -0.42355  -0.40725
  Beta  occ. eigenvalues --   -0.39341  -0.37450  -0.36572  -0.36244  -0.34886
  Beta  occ. eigenvalues --   -0.34644  -0.33234  -0.31885  -0.30242  -0.27234
  Beta  occ. eigenvalues --   -0.25464
  Beta virt. eigenvalues --   -0.03616   0.01847   0.02347   0.06735   0.09605
  Beta virt. eigenvalues --    0.11229   0.12159   0.12435   0.13850   0.14508
  Beta virt. eigenvalues --    0.15314   0.15875   0.17030   0.17508   0.18786

 Mulliken charges and spin densities:
               1          2
     1  C   -0.237804   0.000081
     2  O   -0.537043  -0.000271
     3  C    0.359743  -0.002387
     4  C   -0.244818   0.009395
     5  C   -0.183426  -0.001369
     6  C    0.319892   0.005074
     7  N   -0.764878   0.006762
     8  C    0.681731  -0.007989
     9  N   -0.513437   0.026565
    10  C    0.203225  -0.006042
    11  C   -0.245951   0.007940
    12  N   -0.640883   0.168964
    13  C    0.234418   0.369034
    14  C    0.572285   0.009828
    15  O   -0.641753   0.006143
    16  O   -0.514124   0.109802
    17  C    0.053710  -0.126588
    18  C   -0.523215   0.008065
    19  C    0.225795   0.322474
    20  O   -0.538031  -0.001171
    21  C   -0.231806   0.010356
    22  C    0.081817  -0.030525
    23  C   -0.529682   0.000137
    24  C   -0.014862   0.124536
    25  H    0.187680  -0.000008
    26  H    0.158720  -0.000004
    27  H    0.158869  -0.000006
    28  H    0.161459  -0.000476
    29  H    0.166454   0.000015
    30  H    0.368196  -0.000291
    31  H    0.187625  -0.000381
    32  H    0.435705  -0.000733
    33  H    0.196758  -0.002995
    34  H    0.177838  -0.000614
    35  H    0.200080  -0.003291
    36  H    0.181185   0.001990
    37  H    0.163703  -0.000006
    38  H    0.156071   0.000213
    39  H    0.177187   0.001522
    40  H    0.165997  -0.000309
    41  H    0.194249   0.001626
    42  H    0.191318  -0.005065
 Sum of Mulliken charges =  -0.00000   1.00000

 Dipole moment (field-independent basis, Debye):
    X=             -1.2391    Y=             -4.2030    Z=             -2.3593  Tot=              4.9766
 Quadrupole moment (field-independent basis, Debye-Ang):
   XX=           -115.5293   YY=           -139.0741   ZZ=           -131.3869
   XY=             -4.1338   XZ=             13.6120   YZ=              1.8209

 Normal termination of Gaussian 16 at Mon Jun  9 12:37:45 2025.
