 Gaussian 16, Revision B.01,
 Gaussian 16:  EM64L-G16RevB.01 20-Dec-2017

 ---------------------
 #p opt M062X/6-31g(d)
 ---------------------

 ----------
 C17H17N3O2
 ----------
 Symbolic Z-matrix:
 Charge =  0 Multiplicity = 1

 SCF Done:  E(RM062X) =  -972.258780529     A.U. after   16 cycles
 SCF Done:  E(RM062X) =  -972.279353164     A.U. after   13 cycles
 SCF Done:  E(RM062X) =  -972.284010693     A.U. after   13 cycles
 SCF Done:  E(RM062X) =  -972.285688630     A.U. after   12 cycles
 SCF Done:  E(RM062X) =  -972.286019285     A.U. after   12 cycles
 SCF Done:  E(RM062X) =  -972.286091408     A.U. after   11 cycles
 SCF Done:  E(RM062X) =  -972.286136146     A.U. after   10 cycles
 SCF Done:  E(RM062X) =  -972.286165242     A.U. after   10 cycles
 SCF Done:  E(RM062X) =  -972.286182136     A.U. after   10 cycles
 SCF Done:  E(RM062X) =  -972.286186010     A.U. after    9 cycles
 SCF Done:  E(RM062X) =  -972.286186338     A.U. after    7 cycles
 SCF Done:  E(RM062X) =  -972.286186496     A.U. after    7 cycles
 SCF Done:  E(RM062X) =  -972.286186526     A.U. after    6 cycles
 Optimization completed.
    -- Stationary point found.

                         Standard orientation:
 ---------------------------------------------------------------------
 Center     Atomic      Atomic             Coordinates (Angstroms)
 Number     Number       Type             X           Y           Z
 ---------------------------------------------------------------------
      1          6           0        5.506397   -0.718963    1.024367
      2          8           0        4.884640   -0.689779   -0.253267
      3          6           0        3.542804   -0.403534   -0.193477
      4          6           0        3.113502    0.895785   -0.157585
      5          6           0        4.041746    2.072882   -0.184381
      6          6           0        1.706893    1.143617   -0.106597
      7          6           0        0.932716    2.288207   -0.054613
      8          6           0       -0.423658    1.860003   -0.022073
      9          7           0       -1.654282    2.331886    0.032310
     10          6           0       -2.447670    1.206100    0.032570
     11          6           0       -3.839886    1.121318    0.078629
     12          6           0       -4.441065   -0.132898    0.070405
     13          6           0       -3.678160   -1.315623    0.016891
     14          6           0       -2.288148   -1.260077   -0.030387
     15          6           0       -1.693521   -0.007525   -0.022236
     16          7           0       -0.394572    0.467379   -0.057709
     17          7           0        0.878177    0.019195   -0.105712
     18          6           0        1.307755   -1.272787   -0.167092
     19          6           0        2.643930   -1.526139   -0.206359
     20          6           0        3.185192   -2.924579   -0.299317
     21          8           0       -5.805805   -0.126819    0.117641
     22          6           0       -6.468613   -1.367591    0.111507
     23          1           0        5.456354    0.264169    1.507198
     24          1           0        5.029661   -1.459476    1.678056
     25          1           0        6.548453   -0.994306    0.858551
     26          1           0        5.061298    1.754318   -0.405889
     27          1           0        3.723442    2.784773   -0.953295
     28          1           0        4.031928    2.603918    0.774523
     29          1           0        1.289752    3.304278   -0.034782
     30          1           0       -4.452342    2.014402    0.120418
     31          1           0       -4.160709   -2.284559    0.011640
     32          1           0       -1.713941   -2.179361   -0.070939
     33          1           0        0.541007   -2.036597   -0.184066
     34          1           0        2.371642   -3.651777   -0.356176
     35          1           0        3.816121   -3.036745   -1.185340
     36          1           0        3.802919   -3.175885    0.569116
     37          1           0       -6.254398   -1.934842   -0.803231
     38          1           0       -6.193937   -1.975933    0.982667
     39          1           0       -7.534473   -1.141976    0.152816
 ---------------------------------------------------------------------

 The electronic state is 1-A.
 Alpha  occ. eigenvalues --  -19.67347 -19.65529 -14.88375 -14.85224 -14.71556
 Alpha  occ. eigenvalues --  -10.62513 -10.62138 -10.61314 -10.61061 -10.60828
 Alpha  occ. eigenvalues --  -10.59662 -10.59076 -10.58326 -10.57946 -10.57907
 Alpha  occ. eigenvalues --  -10.56524 -10.56152 -10.55824 -10.55643 -10.54222
 Alpha  occ. eigenvalues --  -10.54083 -10.52720  -1.22100  -1.19497  -1.17598
 Alpha  occ. eigenvalues --   -1.08163  -0.98284  -0.95571  -0.93049  -0.91523
 Alpha  occ. eigenvalues --   -0.87811  -0.84457  -0.82604  -0.81534  -0.80141
 Alpha  occ. eigenvalues --   -0.78250  -0.77302  -0.72886  -0.70776  -0.67988
 Alpha  occ. eigenvalues --   -0.67368  -0.66185  -0.62751  -0.61438  -0.59845
 Alpha  occ. eigenvalues --   -0.58875  -0.58031  -0.55476  -0.55369  -0.53809
 Alpha  occ. eigenvalues --   -0.53714  -0.53346  -0.52209  -0.51117  -0.50273
 Alpha  occ. eigenvalues --   -0.49996  -0.49612  -0.49053  -0.48800  -0.47255
 Alpha  occ. eigenvalues --   -0.46993  -0.46563  -0.45811  -0.44294  -0.43985
 Alpha  occ. eigenvalues --   -0.43000  -0.42377  -0.42005  -0.38857  -0.38566
 Alpha  occ. eigenvalues --   -0.37309  -0.36218  -0.35060  -0.32244  -0.31925
 Alpha  occ. eigenvalues --   -0.28605  -0.24247  -0.21788
 Alpha virt. eigenvalues --   -0.00563   0.01441   0.06061   0.08326   0.10423
 Alpha virt. eigenvalues --    0.10934   0.14234   0.14334   0.14990   0.15788
 Alpha virt. eigenvalues --    0.16729   0.17322   0.18026   0.18284   0.18688

 Mulliken charges:
               1
     1  C   -0.234912
     2  O   -0.536238
     3  C    0.252772
     4  C    0.055605
     5  C   -0.552686
     6  C    0.355033
     7  C   -0.349359
     8  C    0.565562
     9  N   -0.617941
    10  C    0.176609
    11  C   -0.251826
    12  C    0.365139
    13  C   -0.253622
    14  C   -0.152433
    15  C    0.351155
    16  N   -0.522406
    17  N   -0.453276
    18  C    0.051448
    19  C    0.021245
    20  C   -0.531117
    21  O   -0.537285
    22  C   -0.235505
    23  H    0.162355
    24  H    0.159436
    25  H    0.188382
    26  H    0.194945
    27  H    0.190930
    28  H    0.186022
    29  H    0.189563
    30  H    0.182593
    31  H    0.156043
    32  H    0.161851
    33  H    0.217823
    34  H    0.169721
    35  H    0.198755
    36  H    0.176137
    37  H    0.157198
    38  H    0.156915
    39  H    0.185366
 Sum of Mulliken charges =  -0.00000

 Dipole moment (field-independent basis, Debye):
    X=              4.5989    Y=             -5.0131    Z=              1.0382  Tot=              6.8818
 Quadrupole moment (field-independent basis, Debye-Ang):
   XX=           -110.6428   YY=           -123.1037   ZZ=           -131.2171
   XY=             14.5492   XZ=              7.1168   YZ=             -0.7987

 1\1\GINC-C02\FOpt\RM062X\6-31G(d)\C17H17N3O2\PHFMATIAS\09-Jun-2025\0\\
 #p opt M062X/6-31g(d)\\C17H17N3O2\\0,1\C,5.5647009701,-0.7707023681,1.
 0232133738\O,4.9454020907,-0.702434664,-0.2541235833\C,3.6006746305,-0
 .4316712282,-0.1875691759\C,3.1584581335,0.8612871674,-0.1068166332\C,
 4.0750598684,2.0476513298,-0.08967764\C,1.7493594526,1.0933398964,-0.0
 505769319\C,0.9637822903,2.2277187225,0.0399328729\C,-0.3883526289,1.7
 8533738,0.0539557962\N,-1.6237000383,2.2428971098,0.1219467667\C,-2.40
 5904791,1.1100735126,0.0804356164\C,-3.7973083732,1.0100516249,0.12002

 Normal termination of Gaussian 16 at Mon Jun  9 12:59:30 2025.
