 Gaussian 16, Revision B.01,
 Gaussian 16:  EM64L-G16RevB.01 20-Dec-2017

 ---------------------
 #p opt M062X/6-31g(d)
 ---------------------

 ----------
 C17H17N3O2
 ----------
 Symbolic Z-matrix:
 Charge =  0 Multiplicity = 1

 SCF Done:  E(RM062X) =  -972.257634636     A.U. after   16 cycles
 SCF Done:  E(RM062X) =  -972.279071713     A.U. after   13 cycles
 SCF Done:  E(RM062X) =  -972.283523454     A.U. after   13 cycles
 SCF Done:  E(RM062X) =  -972.285414045     A.U. after   12 cycles
 SCF Done:  E(RM062X) =  -972.285957772     A.U. after   12 cycles
 SCF Done:  E(RM062X) =  -972.286123565     A.U. after   11 cycles
 SCF Done:  E(RM062X) =  -972.286259013     A.U. after   11 cycles
 SCF Done:  E(RM062X) =  -972.286318943     A.U. after   10 cycles
 SCF Done:  E(RM062X) =  -972.286375789     A.U. after   10 cycles
 SCF Done:  E(RM062X) =  -972.286393654     A.U. after   10 cycles
 SCF Done:  E(RM062X) =  -972.286400502     A.U. after    9 cycles
 SCF Done:  E(RM062X) =  -972.286403192     A.U. after    9 cycles
 SCF Done:  E(RM062X) =  -972.286403357     A.U. after    7 cycles
 SCF Done:  E(RM062X) =  -972.286403408     A.U. after    6 cycles
 Optimization completed.
    -- Stationary point found.

                         Standard orientation:
 ---------------------------------------------------------------------
 Center     Atomic      Atomic             Coordinates (Angstroms)
 Number     Number       Type             X           Y           Z
 ---------------------------------------------------------------------
      1          6           0        5.918965    1.972868    0.083081
      2          8           0        4.511978    1.984191    0.032352
      3          6           0        3.869714    0.778037    0.041663
      4          6           0        4.531737   -0.462656    0.101397
      5          6           0        3.819851   -1.655589    0.108812
      6          6           0        2.425066   -1.630815    0.056309
      7          7           0        1.528724   -2.682324    0.054383
      8          6           0        0.351929   -2.099176   -0.006917
      9          6           0       -1.042357   -2.391378   -0.045364
     10          6           0       -1.699954   -1.178020   -0.103417
     11          7           0       -0.768596   -0.136582   -0.100705
     12          6           0       -1.071972    1.190438   -0.167074
     13          6           0       -2.377084    1.570626   -0.213531
     14          6           0       -2.781979    3.013987   -0.313352
     15          6           0       -3.379412    0.537811   -0.202614
     16          8           0       -4.687540    0.950848   -0.269206
     17          6           0       -5.306873    1.047666    1.006224
     18          6           0       -3.077201   -0.795980   -0.161803
     19          6           0       -4.113138   -1.879279   -0.190645
     20          7           0        0.457267   -0.705357   -0.045573
     21          6           0        1.789218   -0.354699   -0.004423
     22          6           0        2.479805    0.850345   -0.012571
     23          1           0        6.348237    1.451634   -0.781597
     24          1           0        6.230976    3.017386    0.065416
     25          1           0        6.284291    1.500901    1.003640
     26          1           0        5.613552   -0.498844    0.142694
     27          1           0        4.334569   -2.609286    0.155454
     28          1           0       -1.497902   -3.367263   -0.025607
     29          1           0       -0.235474    1.877257   -0.181859
     30          1           0       -1.902226    3.659808   -0.366394
     31          1           0       -3.393579    3.183441   -1.203866
     32          1           0       -3.378413    3.325922    0.550316
     33          1           0       -5.352972    0.067141    1.494718
     34          1           0       -4.762732    1.742694    1.657171
     35          1           0       -6.317088    1.421225    0.835478
     36          1           0       -5.097787   -1.465130   -0.411950
     37          1           0       -3.863392   -2.617049   -0.960622
     38          1           0       -4.153996   -2.410489    0.767380
     39          1           0        2.008791    1.825070   -0.056914
 ---------------------------------------------------------------------

 The electronic state is 1-A.
 Alpha  occ. eigenvalues --  -19.67210 -19.66010 -14.88114 -14.85124 -14.71635
 Alpha  occ. eigenvalues --  -10.62384 -10.61949 -10.61181 -10.60938 -10.60660
 Alpha  occ. eigenvalues --  -10.60041 -10.59358 -10.58883 -10.57770 -10.57668
 Alpha  occ. eigenvalues --  -10.55974 -10.55932 -10.55519 -10.54800 -10.54088
 Alpha  occ. eigenvalues --  -10.53963 -10.53869  -1.21873  -1.19360  -1.18007
 Alpha  occ. eigenvalues --   -1.08094  -0.98133  -0.95523  -0.93005  -0.91456
 Alpha  occ. eigenvalues --   -0.87656  -0.84362  -0.82755  -0.81881  -0.79358
 Alpha  occ. eigenvalues --   -0.78616  -0.76793  -0.73455  -0.70677  -0.67577
 Alpha  occ. eigenvalues --   -0.67270  -0.66123  -0.62948  -0.61231  -0.59910
 Alpha  occ. eigenvalues --   -0.58702  -0.56610  -0.56406  -0.55258  -0.54071
 Alpha  occ. eigenvalues --   -0.54042  -0.53200  -0.52161  -0.50961  -0.50149
 Alpha  occ. eigenvalues --   -0.49861  -0.49543  -0.49261  -0.48867  -0.47102
 Alpha  occ. eigenvalues --   -0.46923  -0.46007  -0.45768  -0.44750  -0.43821
 Alpha  occ. eigenvalues --   -0.43216  -0.42487  -0.41843  -0.38743  -0.38446
 Alpha  occ. eigenvalues --   -0.37678  -0.36117  -0.33980  -0.32990  -0.32296
 Alpha  occ. eigenvalues --   -0.27230  -0.26173  -0.20978
 Alpha virt. eigenvalues --   -0.00523   0.01773   0.06040   0.08231   0.10762
 Alpha virt. eigenvalues --    0.11159   0.14337   0.14459   0.15110   0.15949
 Alpha virt. eigenvalues --    0.16691   0.17211   0.18188   0.18463   0.18708

 Mulliken charges:
               1
     1  C   -0.237150
     2  O   -0.542952
     3  C    0.344797
     4  C   -0.229968
     5  C   -0.206048
     6  C    0.171150
     7  N   -0.613376
     8  C    0.561079
     9  C   -0.348128
    10  C    0.355728
    11  N   -0.456226
    12  C    0.052060
    13  C    0.020044
    14  C   -0.531209
    15  C    0.253000
    16  O   -0.536191
    17  C   -0.234750
    18  C    0.055090
    19  C   -0.552460
    20  N   -0.527315
    21  C    0.358041
    22  C   -0.201745
    23  H    0.161367
    24  H    0.183492
    25  H    0.161087
    26  H    0.158111
    27  H    0.176416
    28  H    0.188297
    29  H    0.222221
    30  H    0.171340
    31  H    0.197933
    32  H    0.175345
    33  H    0.162018
    34  H    0.159723
    35  H    0.188041
    36  H    0.194594
    37  H    0.190237
    38  H    0.185294
    39  H    0.171011
 Sum of Mulliken charges =  -0.00000

 Dipole moment (field-independent basis, Debye):
    X=             -2.9871    Y=              3.7817    Z=              1.0900  Tot=              4.9409
 Quadrupole moment (field-independent basis, Debye-Ang):
   XX=            -99.5338   YY=           -129.6894   ZZ=           -131.2268
   XY=              6.5380   XZ=             -6.3685   YZ=              1.2598

 1\1\GINC-C02\FOpt\RM062X\6-31G(d)\C17H17N3O2\PHFMATIAS\09-Jun-2025\0\\
 #p opt M062X/6-31g(d)\\C17H17N3O2\\0,1\C,5.8672092214,-2.0606491427,-0
 .0145382643\O,4.4599772139,-2.0606034083,0.0303220887\C,3.8264865263,-
 0.8506009466,-0.0141873899\C,4.4976978343,0.3833006043,-0.1043240469\C
 ,3.7944845221,1.5806332639,-0.1468873898\C,2.3993501786,1.5671945962,-
 0.0998388994\N,1.5106262501,2.6247192973,-0.130073743\C,0.329403485,2.
 0518100306,-0.0582822275\C,-1.0628838239,2.3548432206,-0.0337961112\C,
 -1.7294651807,1.1481899411,0.0539449184\N,-0.8056506066,0.1004612942,0

 Normal termination of Gaussian 16 at Mon Jun  9 12:49:14 2025.
