 Gaussian 16, Revision B.01,
 Gaussian 16:  EM64L-G16RevB.01 20-Dec-2017

 ---------------------
 #p opt M062X/6-31g(d)
 ---------------------

 -----------
 C16H17N3O2S
 -----------
 Symbolic Z-matrix:
 Charge =  0 Multiplicity = 1

 SCF Done:  E(RM062X) =  -1332.37051496     A.U. after   16 cycles
 SCF Done:  E(RM062X) =  -1332.39306494     A.U. after   15 cycles
 SCF Done:  E(RM062X) =  -1332.40132906     A.U. after   14 cycles
 SCF Done:  E(RM062X) =  -1332.40506745     A.U. after   14 cycles
 SCF Done:  E(RM062X) =  -1332.40695379     A.U. after   14 cycles
 SCF Done:  E(RM062X) =  -1332.40807061     A.U. after   13 cycles
 SCF Done:  E(RM062X) =  -1332.40867773     A.U. after   12 cycles
 SCF Done:  E(RM062X) =  -1332.40883697     A.U. after   13 cycles
 SCF Done:  E(RM062X) =  -1332.40888778     A.U. after   11 cycles
 SCF Done:  E(RM062X) =  -1332.40892433     A.U. after   11 cycles
 SCF Done:  E(RM062X) =  -1332.40900587     A.U. after   11 cycles
 SCF Done:  E(RM062X) =  -1332.40901950     A.U. after   11 cycles
 SCF Done:  E(RM062X) =  -1332.40903583     A.U. after   11 cycles
 SCF Done:  E(RM062X) =  -1332.40905357     A.U. after   12 cycles
 SCF Done:  E(RM062X) =  -1332.40906185     A.U. after   12 cycles
 SCF Done:  E(RM062X) =  -1332.40906680     A.U. after   12 cycles
 SCF Done:  E(RM062X) =  -1332.40906751     A.U. after   11 cycles
 SCF Done:  E(RM062X) =  -1332.40906773     A.U. after    8 cycles
 SCF Done:  E(RM062X) =  -1332.40906784     A.U. after    7 cycles
 SCF Done:  E(RM062X) =  -1332.40906786     A.U. after    8 cycles
 Optimization completed.
    -- Stationary point found.

                         Standard orientation:
 ---------------------------------------------------------------------
 Center     Atomic      Atomic             Coordinates (Angstroms)
 Number     Number       Type             X           Y           Z
 ---------------------------------------------------------------------
      1          6           0        7.166370   -0.600275    0.140973
      2          8           0        5.936869   -1.285914    0.119858
      3          6           0        4.792524   -0.544088    0.071359
      4          6           0        4.787362    0.867924    0.043206
      5          6           0        3.596753    1.580514   -0.006602
      6          6           0        2.415159    0.848067   -0.028098
      7          7           0        1.083346    1.210114   -0.076375
      8          6           0        0.374582    0.053566   -0.067530
      9          7           0        1.111489   -1.027840   -0.024305
     10          6           0        2.409419   -0.560978    0.001439
     11          6           0        3.608785   -1.271259    0.051056
     12          7           0       -1.053875   -0.027643   -0.120574
     13          6           0       -1.515346   -1.329114   -0.201208
     14          6           0       -2.832186   -1.642175   -0.230583
     15          6           0       -3.315408   -3.060517   -0.331363
     16          6           0       -3.752171   -0.558821   -0.190018
     17          8           0       -5.081922   -0.874159   -0.231517
     18          6           0       -5.695545   -0.900942    1.053104
     19          6           0       -3.331892    0.746790   -0.146450
     20          6           0       -4.329896    1.867453   -0.166418
     21          6           0       -1.925292    1.062163   -0.090978
     22         16           0       -1.454163    2.681987    0.016159
     23          1           0        7.253519    0.043697    1.025049
     24          1           0        7.939485   -1.367903    0.178201
     25          1           0        7.304008    0.008056   -0.761710
     26          1           0        5.720744    1.416652    0.060218
     27          1           0        3.599374    2.664910   -0.028340
     28          1           0        0.645627    2.130209   -0.075244
     29          1           0        3.634447   -2.354300    0.073801
     30          1           0       -0.730408   -2.071857   -0.229489
     31          1           0       -2.472078   -3.751054   -0.397750
     32          1           0       -3.917249   -3.338689    0.539729
     33          1           0       -3.947558   -3.189867   -1.214070
     34          1           0       -5.202962   -1.631357    1.705754
     35          1           0       -5.656399    0.086429    1.526506
     36          1           0       -6.733528   -1.192794    0.893321
     37          1           0       -4.310958    2.425008    0.775614
     38          1           0       -4.072854    2.582142   -0.952459
     39          1           0       -5.332211    1.477249   -0.346977
 ---------------------------------------------------------------------

 The electronic state is 1-A.
 Alpha  occ. eigenvalues --  -89.86892 -19.67786 -19.66218 -14.86693 -14.81071
 Alpha  occ. eigenvalues --  -14.74915 -10.66655 -10.65044 -10.63385 -10.61299
 Alpha  occ. eigenvalues --  -10.60973 -10.60499 -10.59605 -10.58196 -10.57884
 Alpha  occ. eigenvalues --  -10.57870 -10.57367 -10.55985 -10.55867 -10.54999
 Alpha  occ. eigenvalues --  -10.54137 -10.54030  -8.21674  -6.13760  -6.13373
 Alpha  occ. eigenvalues --   -6.13146  -1.20154  -1.18292  -1.16311  -1.10563
 Alpha  occ. eigenvalues --   -0.99273  -0.95696  -0.93845  -0.92411  -0.85312
 Alpha  occ. eigenvalues --   -0.84580  -0.83421  -0.82387  -0.79670  -0.78284
 Alpha  occ. eigenvalues --   -0.77027  -0.73466  -0.70487  -0.70037  -0.67599
 Alpha  occ. eigenvalues --   -0.66819  -0.62738  -0.62420  -0.59990  -0.59641
 Alpha  occ. eigenvalues --   -0.58545  -0.56796  -0.55163  -0.54460  -0.54273
 Alpha  occ. eigenvalues --   -0.53437  -0.52809  -0.51402  -0.50605  -0.50543
 Alpha  occ. eigenvalues --   -0.49525  -0.49062  -0.47553  -0.47296  -0.46948
 Alpha  occ. eigenvalues --   -0.46025  -0.45548  -0.45149  -0.43873  -0.43181
 Alpha  occ. eigenvalues --   -0.42900  -0.41400  -0.39367  -0.38007  -0.36876
 Alpha  occ. eigenvalues --   -0.36575  -0.35408  -0.34947  -0.34395  -0.27607
 Alpha  occ. eigenvalues --   -0.27146  -0.25573  -0.24928
 Alpha virt. eigenvalues --   -0.03702   0.01573   0.03100   0.07297   0.10603
 Alpha virt. eigenvalues --    0.11234   0.12761   0.14174   0.15126   0.15503
 Alpha virt. eigenvalues --    0.15739   0.16783   0.17258   0.18171   0.18641

 Mulliken charges:
               1
     1  C   -0.238591
     2  O   -0.538282
     3  C    0.358801
     4  C   -0.244187
     5  C   -0.173977
     6  C    0.331325
     7  N   -0.799819
     8  C    0.797552
     9  N   -0.626036
    10  C    0.226481
    11  C   -0.235491
    12  N   -0.635548
    13  C    0.032234
    14  C    0.044087
    15  C   -0.528869
    16  C    0.304230
    17  O   -0.531953
    18  C   -0.241781
    19  C    0.011270
    20  C   -0.533980
    21  C    0.147364
    22  S   -0.279132
    23  H    0.160091
    24  H    0.187228
    25  H    0.160142
    26  H    0.163496
    27  H    0.177911
    28  H    0.391405
    29  H    0.181700
    30  H    0.265429
    31  H    0.181679
    32  H    0.177214
    33  H    0.198446
    34  H    0.163717
    35  H    0.171188
    36  H    0.192577
    37  H    0.194416
    38  H    0.208108
    39  H    0.179554
 Sum of Mulliken charges =  -0.00000

 Dipole moment (field-independent basis, Debye):
    X=             -1.0981    Y=             -1.5790    Z=              0.9974  Tot=              2.1665
 Quadrupole moment (field-independent basis, Debye-Ang):
   XX=           -100.2698   YY=           -136.4483   ZZ=           -138.4411
   XY=             16.6786   XZ=             -7.0052   YZ=             -0.9733

 Normal termination of Gaussian 16 at Mon Jun  9 11:54:04 2025.
